<?xml version="1.0"?>
<VTKFile type="UnstructuredGrid" version="0.1" byte_order="LittleEndian" compressor="vtkZLibDataCompressor">
  <UnstructuredGrid>
    <Piece NumberOfPoints="80" NumberOfCells="36">
      <PointData>
        <DataArray type="Float32" Name="first-scalar" format="ascii">
          0 0 0 0 0 0
          0 0 0 0 0 0
          0 0 0 0 0 0
          0 0 0 1 1 0
          0 1 1 0 0 0
          0 0 0 0 0 0
          0 1 1 0 0 1
          1 0 0 0 0 0
          0 0 0 0 0 1
          1 0 0 1 1 0
          0 0 0 0 0 0
          0 0 0 0 0 0
          0 0 0 0 0 0
          0 0
        </DataArray>
        <DataArray type="Float32" Name="200_to_1000" format="ascii">
          1000 900 800 700 1000 200
          200 1000 200 200 900 1000
          200 400 200 1000 300 200
          700 800 1000 500 600 900
          1000 400 200 1000 200 200
          200 1000 400 200 300 200
          200 900 600 1000 200 500
          200 1000 200 300 200 1000
          400 800 600 1000 200 200
          200 1000 200 200 400 1000
          300 900 700 1000 600 500
          200 1000 200 600 200 1000
          300 200 200 1000 200 300
          400 200
        </DataArray>
        <DataArray type="Float32" Name="steve's_vector" NumberOfComponents="3" format="ascii">
          0 0 0 0 0 0
          0 0 0 0 0 0
          0 0 0 0 0 1
          0 0 1 0 0 0
          0 0 0 0 0 1
          0 0 1 0 0 0
          0 0 0 0 0 0
          0 0 0 0 0 0
          0 0 0 0 0 0
          0 0 0 0 0 0
          0 0 0 0 0 2
          0 0 2 0 0 0
          0 0 0 0 0 2
          0 0 2 0 0 0
          0 0 0 0 0 0
          0 0 0 0 0 0
          0 0 0 0 0 0
          0 0 0 0 0 0
          0 0 0 0 0 3
          0 0 3 0 0 0
          0 0 0 0 0 3
          0 0 3 0 0 0
          0 0 0 0 0 0
          0 0 0 0 0 0
          0 0 0 0 0 0
          0 0 0 0 0 0
          0 0 0 0 0 4
          0 0 4 0 0 0
          0 0 0 0 0 4
          0 0 4 0 0 0
          0 0 0 0 0 0
          0 0 0 0 0 0
          0 0 0 0 0 0
          0 0 0 0 0 0
          0 0 0 0 0 5
          0 0 5 0 0 0
          0 0 0 0 0 5
          0 0 5 0 0 0
          0 0 0 0 0 0
          0 0 0 0 0 0
        </DataArray>
        <DataArray type="Float32" Name="second vector" NumberOfComponents="3" format="ascii">
          0 0 0 0 0 0
          0 0 0 0 0 0
          0 0 0 0 0 10
          0 0 10 0 0 0
          0 0 0 0 0 10
          0 0 10 0 0 0
          0 0 0 0 0 0
          0 0 0 0 0 0
          0 0 0 0 0 0
          0 0 0 0 0 0
          0 0 0 0 0 20
          0 0 20 0 0 0
          0 0 0 0 0 20
          0 0 20 0 0 0
          0 0 0 0 0 0
          0 0 0 0 0 0
          0 0 0 0 0 0
          0 0 0 0 0 0
          0 0 0 0 0 30
          0 0 30 0 0 0
          0 0 0 0 0 30
          0 0 30 0 0 0
          0 0 0 0 0 0
          0 0 0 0 0 0
          0 0 0 0 0 0
          0 0 0 0 0 0
          0 0 0 0 0 40
          0 0 40 0 0 0
          0 0 0 0 0 40
          0 0 40 0 0 0
          0 0 0 0 0 0
          0 0 0 0 0 0
          0 0 0 0 0 0
          0 0 0 0 0 0
          0 0 0 0 0 50
          0 0 50 0 0 0
          0 0 0 0 0 50
          0 0 50 0 0 0
          0 0 0 0 0 0
          0 0 0 0 0 0
        </DataArray>
        <DataArray type="Float32" Name="fourth_param_is_a_scalar" format="ascii">
          0.25 0.25 0.25 0.25 0.25 0.25
          0.25 0.25 0.25 0.25 0.25 0.25
          0.25 0.25 0.25 0.25 0.25 0.25
          0.25 0.25 0.25 0.25 0.25 0.25
          0.25 0.25 0.25 0.25 0.25 0.25
          0.25 0.25 0.25 0.25 0.25 0.25
          0.25 0.25 0.25 0.25 0.25 0.25
          0.25 0.25 0.25 0.25 0.25 0.25
          0.25 0.25 0.25 0.25 0.25 0.25
          0.25 0.25 0.25 0.25 0.25 0.25
          0.25 0.25 0.25 0.25 0.25 0.25
          0.25 0.25 0.25 0.25 0.25 0.25
          0.25 0.25 0.25 0.25 0.25 0.25
          0.25 0.25
        </DataArray>
      </PointData>
      <CellData>
      </CellData>
      <Points>
        <DataArray type="Float32" NumberOfComponents="3" format="ascii">
          0 0 0 1 0 0
          2 0 0 3 0 0
          0 1 0 1 1 0
          2 1 0 3 1 0
          0 2 0 1 2 0
          2 2 0 3 2 0
          0 3 0 1 3 0
          2 3 0 3 3 0
          0 0 1 1 0 1
          2 0 1 3 0 1
          0 1 1 1 1 1
          2 1 1 3 1 1
          0 2 1 1 2 1
          2 2 1 3 2 1
          0 3 1 1 3 1
          2 3 1 3 3 1
          0 0 2 1 0 2
          2 0 2 3 0 2
          0 1 2 1 1 2
          2 1 2 3 1 2
          0 2 2 1 2 2
          2 2 2 3 2 2
          0 3 2 1 3 2
          2 3 2 3 3 2
          0 0 3 1 0 3
          2 0 3 3 0 3
          0 1 3 1 1 3
          2 1 3 3 1 3
          0 2 3 1 2 3
          2 2 3 3 2 3
          0 3 3 1 3 3
          2 3 3 3 3 3
          0 0 4 1 0 4
          2 0 4 3 0 4
          0 1 4 1 1 4
          2 1 4 3 1 4
          0 2 4 1 2 4
          2 2 4 3 2 4
          0 3 4 1 3 4
          2 3 4 3 3 4
        </DataArray>
      </Points>
      <Cells>
        <DataArray type="Int32" Name="connectivity" format="ascii">
          0 1 5 4 16 17
          21 20 1 2 6 5
          17 18 22 21 2 3
          7 6 18 19 23 22
          4 5 9 8 20 21
          25 24 5 6 10 9
          21 22 26 25 6 7
          11 10 22 23 27 26
          8 9 13 12 24 25
          29 28 9 10 14 13
          25 26 30 29 10 11
          15 14 26 27 31 30
          16 17 21 20 32 33
          37 36 17 18 22 21
          33 34 38 37 18 19
          23 22 34 35 39 38
          20 21 25 24 36 37
          41 40 21 22 26 25
          37 38 42 41 22 23
          27 26 38 39 43 42
          24 25 29 28 40 41
          45 44 25 26 30 29
          41 42 46 45 26 27
          31 30 42 43 47 46
          32 33 37 36 48 49
          53 52 33 34 38 37
          49 50 54 53 34 35
          39 38 50 51 55 54
          36 37 41 40 52 53
          57 56 37 38 42 41
          53 54 58 57 38 39
          43 42 54 55 59 58
          40 41 45 44 56 57
          61 60 41 42 46 45
          57 58 62 61 42 43
          47 46 58 59 63 62
          48 49 53 52 64 65
          69 68 49 50 54 53
          65 66 70 69 50 51
          55 54 66 67 71 70
          52 53 57 56 68 69
          73 72 53 54 58 57
          69 70 74 73 54 55
          59 58 70 71 75 74
          56 57 61 60 72 73
          77 76 57 58 62 61
          73 74 78 77 58 59
          63 62 74 75 79 78
        </DataArray>
        <DataArray type="Int32" Name="offsets" format="ascii">
          8 16 24 32 40 48
          56 64 72 80 88 96
          104 112 120 128 136 144
          152 160 168 176 184 192
          200 208 216 224 232 240
          248 256 264 272 280 288
        </DataArray>
        <DataArray type="UInt8" Name="types" format="ascii">
          12 12 12 12 12 12
          12 12 12 12 12 12
          12 12 12 12 12 12
          12 12 12 12 12 12
          12 12 12 12 12 12
          12 12 12 12 12 12
        </DataArray>
      </Cells>
    </Piece>
  </UnstructuredGrid>
</VTKFile>
